36
Lattice="9.927453745726138 -0.06954993488075699 0.0 -0.0766681265668553 11.137680574005218 0.0 0.0 0.0 15.0" Properties=species:S:1:pos:R:3:REF_forces:R:3 REF_energy=-230.0469970703125 pbc="T T T"
Mo       1.70696988       4.36931849       7.44995201      -0.83983660       5.54372406       1.91786337
Mo       1.65912408       9.86613048       7.57150327       1.80547500       3.30667663      -0.44396827
Mo       4.97452741       4.54729478       7.81147008      -7.22115040       2.55111003      -4.42491865
Mo       4.69414389       9.80291939       7.74629767      -2.88653421       4.69199324      -3.59221840
Mo       7.77512449       4.13380746       7.84843367       1.28168511       2.14591837      -0.07113678
Mo       8.00500275       9.77283733       7.63579031      -0.91299391       3.22198534      -1.42565179
Mo       3.21600108       1.87087565       7.33366450      -6.79143667       4.21259117       8.71999836
Mo       3.08258614       7.60145987       7.08769345      -0.27281451      -1.98717117       3.42571902
Mo       6.25675977       1.64909701       7.60273304      -1.01249230       3.07895851      -1.92289758
Mo       6.18689151       6.95588100       7.40757766       2.57372570       5.22174120       0.99439502
Mo      -0.57751181       1.90282737       7.77288809       5.88633633       1.31243682      -4.35823822
Mo       0.00799131       7.58466490       7.31958595      -0.68643183      -9.90492916       1.68825114
S        2.90265598       3.52495494       5.97342646       3.87797070       1.07357824      -4.86720276
S        3.27766250       9.50218971       5.63388066      -0.82168692      -1.21422982       1.83653641
S        6.19830487       3.80855212       6.17013441       2.24086857      -2.98164797      -2.07106686
S        6.20129811       9.22088560       5.97188992       1.33204913      -1.04121482       0.59293324
S        0.22561851       3.18605354       5.98853072      -1.54080820       1.22562551      -0.82801843
S       -0.11510583       9.25301858       6.22070262      -0.59219557       4.92786217      -5.70767736
S        1.67281652       1.07586817       5.92324111      -2.81168485      -1.94028711      -0.10536930
S        1.55660603       6.42269479       5.69053294      -0.43560535      -0.19992194       0.98184156
S        4.46369852       0.85506970       6.39613495       9.95903397      -8.19569016      -8.18034267
S        4.68617226       6.10658370       6.08922694      -1.93595672       0.88049644      -3.32103491
S        8.02062961       0.65171784       5.83077383      -0.61373436       0.01675443       2.11324358
S        7.71997815       6.46650522       5.92230045       3.87907863      -1.64768314      -0.75099081
S        3.36969357       3.38611915       9.10221034      -2.32074499       1.72726429       0.50576830
S        3.46309034       9.09174882       9.66488813      -1.54297137       0.33152807      -2.31916261
S        5.94457826       3.74114468       9.31566466       6.91885853      -4.18969250       6.50946045
S        6.19149125       8.93840091       8.90263087       4.87862158      -0.90599626       3.50426435
S        0.45994846       3.54628257       8.98140532      -3.55483103      -0.57342660       3.45913029
S        0.05896508       8.95509853       8.91605453      -1.57762706       2.85425472       4.53874683
S        1.85936158       0.87145174       8.95125718      -2.84704065      -1.52555752       0.11602461
S        1.59922081       6.58543036       9.21989823       0.24763724      -1.01850927      -2.97548056
S        4.61460689       0.74534561       9.14903811       1.41814351      -0.48417538      -0.12594980
S        4.83669006       6.89402114       9.09757145      -3.28625011      -3.45388222       1.99177563
S        7.89087163       0.93459401       8.76047752      -2.41049361      -6.11241770       6.85167122
S        7.94551884       6.30376699       9.25349610       0.61583537      -0.94806731      -2.25629950
36
Lattice="9.641777806262693 -0.3843291187326656 0.0 0.12270272528421776 11.15004820941111 0.0 0.0 0.0 15.0" Properties=species:S:1:pos:R:3:REF_forces:R:3 REF_energy=-218.05490112304688 pbc="T T T"
Mo       1.47726378       4.51808407       7.39751902       6.23558426       2.44067526      -6.60052299
Mo       1.73631385      10.15731580       7.72344187      -3.00269485       0.31861192      -3.56085086
Mo       4.82816898       4.85633131       7.93449921      -0.34904850      -4.83458138      -1.55772221
Mo       4.92251699       9.97751842       7.55868319      -9.30278015       8.19725132      -7.24422312
Mo       7.84096884       4.46778089       7.07073222       2.38144112       1.01023924       3.11213636
Mo       7.90763873      10.12708632       7.25672654       0.84765881      -0.03704578       1.98166037
Mo       2.95381889       1.49104964       7.66523847      35.52153015      15.02275467     -26.08146667
Mo       3.33243996       7.68783105       7.30340220      -0.97493756      -2.95023441       3.82478285
Mo       5.97223807       1.87727916       7.70934487       2.55305552       5.10362911      -7.36617374
Mo       6.34545893       7.56482129       7.33547173      -3.65310431      -5.72672749       0.26289514
Mo      -0.24501869       1.64296933       7.74780255      11.34094524       2.83227444       3.85332155
Mo       0.12344413       6.95399669       7.55178240       1.79838145       2.47979903      -0.86748123
S        3.27609527       3.77702609       5.80659242      -0.46625626      -0.88480926       2.41892052
S        3.17504056       9.04293103       5.67616827       0.16060837       3.20191860      -0.64581645
S        6.08422758       3.84948842       5.89698020      -0.27859038      -1.58850706       0.06050140
S        6.21803943       9.14371848       5.90014997       1.43193924       3.12739205      -4.23625851
S       -0.02106063       3.49749860       5.70385169      -0.42445725       1.15101027       1.17887759
S       -0.10612248       9.24385851       5.76178912       0.14060253       0.52351534       2.37926865
S        1.66012758       0.69291564       5.90011863      -1.90065265      -0.05664460       0.12480482
S        2.17095623       6.44946822       5.85338916      -3.53975320      -1.21758640      -0.35301319
S        4.39620404       0.79667459       6.14988774       4.53629112      -1.08788967      -3.32327056
S        4.94576752       6.12766912       6.05777118      -1.22306073       2.65778494      -0.86709476
S        7.97817568       1.28138156       6.54160939      -9.86342525      -2.46270895     -12.03652763
S        7.81225488       6.59669814       6.02166344       3.41255283      -2.38129663      -3.22409105
S        3.00210519       3.56318620       9.26397970       1.14583206       0.61829734      -1.96791899
S        3.09274022       9.43767987       9.28187172       1.63931537      -1.75551391       0.36909950
S        6.71947792       3.70557691       9.16059957      -1.34111285       1.03344393      -1.18231106
S        5.94969480       9.00804031       8.81070474       8.53068256      -1.35119414      11.60465813
S        0.31497359       4.21311361       8.91282485      -7.64462519      -3.01604795       6.81054592
S        0.01252874       9.47322602       9.25327688      -0.82061273      -0.09258401      -1.91889858
S        1.74938600       1.17897704       8.60380216     -35.36234283     -12.10162830      30.86988831
S        1.73194215       6.31408685       9.34389652      -0.72406447       1.14554620      -2.10701466
S        4.86358553       0.93336728       9.08209380      -4.80894232      -4.21765232       5.65050793
S        4.55886611       6.69489093       9.07631529       1.30492520       0.77424312       1.93038750
S        7.59441507       1.05498847       8.87508178       0.85864896      -3.81785727       6.09087944
S        7.79531510       6.49801567       8.68618879       1.84046757      -2.05787969       2.61752367
36
Lattice="9.382418623199802 -0.21894662508318166 0.0 -0.04532227737085603 10.962247834306195 0.0 0.0 0.0 15.0" Properties=species:S:1:pos:R:3:REF_forces:R:3 REF_energy=-233.89581298828125 pbc="T T T"
Mo       1.45217205       4.32355491       7.51622325       6.11859512       4.33959723       0.35217550
Mo       1.60784274       9.94153980       7.38734862       1.28408873       2.12454343      -0.24405447
Mo       4.75801356       4.93478991       7.71464743      -6.42940044      -2.10817051      -8.07566833
Mo       4.92613598       9.87523170       7.48302265      -2.64907026       0.34653616      -2.34390330
Mo       7.83412287       4.66762035       7.49927406       1.62473178       1.01140928       3.45522094
Mo       8.33053789      10.12132665       7.55453032      -5.20705032      -3.45914245      -3.58889937
Mo       3.05607177       2.03916111       7.35381804      -0.92768669      -2.00226355       0.39550141
Mo       2.86272786       7.58547888       7.02747707       6.42490959       2.21579385      11.05962372
Mo       6.15945044       2.01018579       7.79399675       2.50890183      -4.17018318      -3.84448409
Mo       6.20371102       7.26416356       7.32894085       2.29992175       0.79903877       2.14220905
Mo      -0.05789715       1.79258057       7.62426274      -1.06300604       3.20827246      -7.04874516
Mo      -0.04022324       7.45087854       7.51861430       5.37212467       2.81476569       6.70070839
S        3.35021422       3.70127834       5.90103618      -1.53948605       1.15420914      -0.46726698
S        3.55885111       9.03194576       5.73798574      -0.72561467       3.44697261      -2.82773995
S        6.22541603       3.73052500       6.34180852       0.08028650      -0.42191303      -5.33091354
S        6.25869385       9.00916994       5.73621411       0.92324817       0.28850552       0.74187195
S       -0.00094576       3.78513149       6.16080357      -3.82524514      -2.21142936      -4.97954798
S        0.14517834       9.12433448       5.74216459      -0.31011897       1.00566065       0.51024413
S        1.62338151       0.82457907       5.75210220      -0.23077551       1.14431143       1.37442565
S        1.85912887       6.39636831       5.94533829      -7.29078484      -6.75397968      -5.99234629
S        4.61523921       1.07739007       5.78009916       1.26723051      -0.53220332       1.46308208
S        4.62231602       6.20740911       5.92005114       0.88134468       2.80039549      -2.69345522
S        7.62938461       0.59783839       5.79676163       0.90116745       2.06129050       1.54747725
S        8.39176838       6.50218284       5.93656074      -6.65380573      -4.06156349      -5.43939781
S        3.19863207       3.94268991       9.13119715      -0.91867161      -2.59484220       0.34311050
S        2.82192511       8.93702808       9.29101243       1.79012299       0.19358563      -2.20641994
S        5.94402274       3.86622995       8.84031435       7.79894447      -4.11744022       9.04161644
S        6.19475310       9.12942264       9.06920615       2.06902122      -0.81695610       0.33218649
S        0.22745083       3.66347780       9.14521820      -4.16504478      -0.54218286       2.30897593
S        0.20009285       9.42655709       9.13699249      -0.08699934      -1.78171861       1.57480180
S        1.36296288       1.20817796       8.97749409       5.58861542      -2.72620797       3.37426972
S        1.38610727       5.93651283       9.27830869      -0.06524110       2.88695717      -1.15202236
S        4.55052525       0.78661879       8.64350516      -1.47598970       0.45923394       4.08956242
S        4.89128711       6.19272650       9.27014692       0.09693578       6.74270821       4.32680559
S        7.91907047       0.69254111       9.11831382      -2.58236742       1.60342360       2.63523054
S        7.85680561       6.83773779       9.25806614      -0.88382959      -2.34701538      -1.53424013
36
Lattice="9.81753963043859 0.16342001420793825 0.0 -0.18278413150277317 10.894138875416656 0.0 0.0 0.0 15.0" Properties=species:S:1:pos:R:3:REF_forces:R:3 REF_energy=-237.54586791992188 pbc="T T T"
Mo       1.63873044       4.46650457       7.79381433      -1.58217716       0.24140166      -4.09689808
Mo       1.19713533       9.86502586       7.17928143       4.46573067       0.76383615       7.07399511
Mo       4.49379522       4.86740669       7.36335043       2.52305675      -6.41575575      -2.09318399
Mo       4.73278870      10.24186450       7.21479602       8.85873318      -1.21461630       8.15655518
Mo       7.31675167       4.46142620       7.51158028      10.44221878       5.46729660      -4.28328657
Mo       7.97513608       9.85312675       7.36898066      -0.32805848       0.84822828      -0.18897527
Mo       2.98905605       1.74728873       7.71861358       3.76125526      -2.75005293      -3.55743170
Mo       2.76459400       7.00300927       7.31909286       5.88105106       5.61285686       2.62285137
Mo       6.47200812       1.94458239       7.39381633       0.86472398      -4.97011280       3.74228024
Mo       6.57501444       7.36513275       7.56137730      -1.00771022      -0.46356755       0.12231260
Mo       0.14449963       1.88649832       7.41520523      -4.03038359      -1.96419263       1.84179068
Mo       0.10754718       7.26245076       7.38937479      -1.97528887      -1.29541385       1.23916411
S        3.16749595       3.30491252       5.99764412      -1.26078176       2.42504930      -0.35962129
S        3.22514304       9.31954758       6.39349726      -6.04260969      -6.19307804      -5.71770716
S        6.50118458       3.42309048       5.86932820      -2.12030387       2.27002335      -5.73137188
S        6.36182708       8.93726007       5.71220709       0.08046370       1.43170071       1.46636283
S       -0.05441855       3.58768928       5.99562062      -0.08322014       1.38041210       0.16402632
S       -0.12671353       9.03612374       5.88320256      -3.42468262      -2.91392374      -5.25707722
S        1.47940351       0.74437238       6.03911874       1.60923910       3.63617778      -4.00813150
S        1.71432403       6.12106426       5.82141103      -4.00750065      -2.00999594      -3.22478127
S        4.75359564       0.99525454       5.97534988      -0.06783238       3.52286673      -2.71076632
S        4.75314835       6.54125619       5.91067637       0.11773038       0.66797280      -0.77330792
S        8.24236782       1.06860882       5.77559090      -0.73917931      -0.66615665       1.68828428
S        7.92788196       6.31264140       5.85670151       0.73210508       0.41320902       1.28510237
S        3.15217510       3.43059599       9.00080539       2.13474441       3.11736345       4.11775780
S        3.37877466       9.47704172       9.25670836      -0.63442063      -1.00058341      -1.10895228
S        6.27846607       3.96663176       9.06280687      -5.20427465      -3.85410929       6.64606524
S        6.50179143       9.38359976       9.31950434      -0.25898099      -2.09728360      -2.61532283
S       -0.11560065       3.59151172       9.07143970      -0.90384465       0.21789666       0.40558591
S        0.05402778       9.17427250       8.94273144      -1.80100107      -2.03692007       1.09290504
S        1.58268937       0.99635958       9.15681994      -2.34556627      -1.98686230       1.35050797
S        2.04400824       6.35743586       9.26488807      -3.33711338      -0.59151745       1.35370374
S        4.90036417       0.74375337       9.16904379      -0.58427304       1.63031626      -1.21252275
S        4.68940139       6.27249462       8.88078805       0.65355027       4.33038807       3.35928845
S        8.16742066       0.68240337       8.82841196       0.23921612       3.79741287       0.35381433
S        8.29814403       6.36429251       9.04959145      -0.62461770       0.64973253      -1.14301765
36
Lattice="9.521509971526829 0.17631373112213883 0.0 -0.0214273701949453 11.136236171944379 0.0 0.0 0.0 15.0" Properties=species:S:1:pos:R:3:REF_forces:R:3 REF_energy=-221.24884033203125 pbc="T T T"
Mo       1.67857036       4.59743685       7.33104701     -10.37450027       0.98032910       7.93225765
Mo       1.59813573      10.13467330       7.72516662       3.33539534       3.95222092      -6.36320019
Mo       4.69645293       4.42540784       7.70181090       3.76814842       5.29367638      -7.51581430
Mo       4.56563831       9.86166897       7.56840558       0.25398669       6.93699121       1.00139236
Mo       7.92049812       4.43721232       7.47382529      -1.10908008       0.91959953       5.99151039
Mo       8.10741270       9.89901232       7.69335801     -14.10605335       8.10665417      -2.08528495
Mo       2.95254667       1.77556827       7.27281049      10.34896660       4.03499079       9.82623959
Mo       3.00473540       7.26620257       7.67620798       7.03476381       0.02046849      -5.67042065
Mo       6.05146054       1.96069388       7.53980146       0.76750731      -9.16426945       8.67759705
Mo       6.10808758       7.56523918       7.33509830       0.24855174      -1.70590246       2.56757689
Mo       0.14639270       1.49572602       7.30225933      -9.93499660       7.57068634       0.77129728
Mo       0.22527931       7.30327025       7.39455693      -9.05086613       1.34026408      -1.80403137
S        3.00189586       3.77329374       6.29234783       8.71026039      -5.45549154     -12.85784340
S        3.51679548       9.05683881       6.00002317      -5.70529652      -1.82012320      -4.16494799
S        6.56888843       3.27609747       6.30416427       0.02741940       9.04405975     -10.68997955
S        6.03572639       9.28046194       5.83864987       2.15339994      -0.02824095      -0.58275890
S       -0.15845327       3.65526375       5.94567313       2.44389653      -1.75187373      -2.32730341
S       -0.02202017       9.30541464       6.33286703       3.97044492      -1.33493328     -10.95144081
S        1.67469775       0.91365964       6.22261066      -2.55774999      -9.06802082     -13.51264954
S        1.59545807       6.23661378       6.16100302       1.21719098       5.27378559      -8.86414433
S        4.77001454       1.21490894       5.92155721      -1.44809198      -3.06410408      -1.89646447
S        4.43701132       6.41035451       5.65174345       1.52817774       0.00033665       2.37100625
S        7.80928926       1.10858705       5.89757770       0.03986254      -2.08408475      -0.03409350
S        7.77701520       6.27113732       6.49579177       0.64023322       4.05279827      -4.46740913
S        3.15855228       3.64016578       8.68340114      -3.97822547      -3.49616456       9.68811417
S        2.96891359       9.03970882       8.93662766       2.20751739       0.55294859       6.15997505
S        6.06797408       3.71735141       9.15083678       3.76425219      -1.47764063       2.97642517
S        6.07213966       9.51432663       9.01057616       3.66656494      -3.26114988       2.87645411
S        0.15209823       3.76948835       8.74918171      -0.91599131      -3.38609028       3.31917715
S        0.10809431       9.16136006       8.66683820       3.08652735      -5.34970665      14.59301567
S        1.28408200       0.95457852       8.96746215       4.26939297      -1.31471741       4.60684395
S        1.42707353       6.42722796       8.73530293       1.44542551      -4.21837282      10.31464386
S        5.01573557       0.85596780       9.25199840      -2.76767731      -0.89386594       0.06949866
S        4.82501101       6.28954477       9.01150705      -0.65593648       2.18878984       0.68206137
S        8.02980935       1.11511721       8.85962204      -1.62345386      -1.68015575       1.00744188
S        8.03676704       6.53435517       9.28969252      -0.69996935       0.28631124      -1.64474118
36
Lattice="9.104431102559952 0.4426189564909841 0.0 0.2865842115883918 10.908038096420075 0.0 0.0 0.0 15.0" Properties=species:S:1:pos:R:3:REF_forces:R:3 REF_energy=-218.57440185546875 pbc="T T T"
Mo       1.72405826       4.83714215       7.47353985       1.58077788     -16.79648209      -0.94229138
Mo       1.47060713       9.94397203       7.49124382       1.73810387       1.33235610       2.99588776
Mo       4.88663867       4.10503513       7.17131756      -5.39658117       4.72080135       4.52275085
Mo       5.01989598       9.87771444       7.18201286      -2.10306525      -2.90918446       0.14771017
Mo       7.90706331       4.26462086       7.50792806      -2.84886789       7.70184517       6.20955276
Mo       7.85848793       9.89925681       7.49866675      -8.54503059       6.08216381       3.17647958
Mo       3.27922646       1.87893277       7.26467791      -3.27358484       1.52498233       5.26531887
Mo       3.15993204       7.24509628       7.37534678       4.52926731       2.07066989       4.53630400
Mo       6.24931322       1.92172841       7.47563106       0.83594155      -2.47923946       1.51956904
Mo       6.01242456       7.16668153       7.30870814       3.26224875       1.68471813      -0.65786576
Mo       0.07157357       1.85840187       7.31972068       1.30168784      -4.94444036       4.27019691
Mo       0.09519892       7.07599309       7.76061685     -30.72395897      20.37725830     -22.36907196
S        2.75730497       3.46197200       5.76047691       3.33459067       1.54379141      -1.37805736
S        3.00914984       9.11423179       6.19156413       1.52672338       0.28544551      -4.31308126
S        6.54249598       3.64981669       6.01545314      -0.97466594      -1.68827176      -7.60544586
S        6.73106504       8.82285635       5.55831625      -3.90254068       0.40789053       0.87654918
S        0.17153461       3.62934232       5.92400227       2.95366144       0.45662001      -4.36556149
S       -0.23817915       9.04510595       5.92610560       9.59225941      -2.91003704      -9.31401443
S        1.56251183       0.87405543       5.97961493       1.05575371      -1.08131766      -1.87578917
S        1.68613622       6.44093599       6.21615606      -3.32194829       1.97122931     -12.17293358
S        4.56490332       0.79442277       6.05741047       3.35590839       0.47802633      -5.88345671
S        4.62702506       6.52074314       5.67201008       0.14735648      -1.80143523      -0.65517354
S        7.84869453       0.88666647       5.67765057      -1.37180114       1.60562181       1.21019006
S        7.77813224       6.62386634       5.77779767       0.06827942      -1.49683356       1.38577974
S        3.09958943       3.84710390       9.16228822       1.31441307      -0.68783599      -1.44421494
S        3.47939127       8.76901216       9.17335411      -1.17577767       1.96277785      -0.84952813
S        6.33034671       3.70866107       9.35053289      -1.10499668      -1.05359972      -2.10333776
S        6.21254404       9.78111857       8.96681436      -0.28651184      -3.26755905       4.79551888
S        0.11174159       3.44988237       9.33468853       1.44939899      -0.58160877      -0.14836949
S        0.01810199       9.16640325       9.11753745       4.01379633      -2.88400269       5.41443443
S        2.01475917       1.03999335       9.16980811      -1.97856510      -0.78081608      -1.88535213
S        1.26810508       6.35440418       8.55644473      30.42692947     -10.29721451      29.85617065
S        4.72048195       0.59176776       8.91872728       0.01617604       1.89708328       0.92339319
S        4.72010330       6.33478207       8.90297629      -0.17297387      -1.83236361       1.00559282
S        7.87758488       0.88076418       9.11275607      -0.59120584       2.46869516      -1.30717373
S        8.18225308       6.26036907       9.31573563      -4.73119497      -1.07973611       1.15932560
36
Lattice="9.330561308350637 0.1772010451494684 0.0 0.23992041336825387 11.322572423531415 0.0 0.0 0.0 15.0" Properties=species:S:1:pos:R:3:REF_forces:R:3 REF_energy=-229.1014404296875 pbc="T T T"
Mo       1.61914151       4.62104771       7.22229028      -5.05061817       1.73380828       5.42134809
Mo       1.63262283       9.94684626       7.42695786       1.19726455       2.32337284       2.91216373
Mo       4.69309867       4.17942490       7.37290454      -1.54231381       6.09521866       2.01653457
Mo       4.64183088      10.25971645       7.69410812       0.95247602      -2.12955952      -2.06097460
Mo       7.92217726       4.59779386       7.64447002     -26.61983109      11.61269188     -30.52305984
Mo       7.76193421      10.15218251       7.53379807      -4.32344961       2.66713047       5.30749178
Mo       3.42600839       1.69727860       7.37440073      -4.07731771      -1.20340240       3.24015331
Mo       3.38320755       7.00812708       7.50451117      -6.51289749       7.81795979      -4.32008839
Mo       6.15887184       1.56181845       7.51957694       1.54799962       0.93151236      -2.08017206
Mo       5.89996861       7.43337622       7.44119239       5.42377329       1.22031546       0.74835610
Mo      -0.23516119       2.07019932       7.72923126       2.19701219      -6.34868526      -2.73842525
Mo      -0.08004656       7.35625882       7.25448866       1.96420336      -0.65119672       5.00760174
S        2.89432330       3.46128082       6.19416990       4.32337475      -2.63895488      -7.07257366
S        3.09650066       8.99818677       5.81994721       0.32693675       1.38148642       1.76653218
S        6.28055605       3.46940699       6.20594750       2.71320009      -0.78128695      -5.01580906
S        6.19461629       9.22774260       5.81045288      -0.52713954       0.67372060       2.12172818
S        0.01281671       3.55555985       5.64793285      -0.28139019       0.15163532       2.23548627
S       -0.17009658       9.44173990       6.17093196       3.90789795      -2.74973059      -6.01317978
S        1.26805009       0.81272645       5.78993313       0.67505139      -0.78571856       2.16977382
S        1.85037682       6.50434939       6.08008850      -4.11129665      -0.59251070      -4.66556072
S        4.73948366       0.93442381       5.76556363       0.01584831      -2.35109615      -1.00819981
S        4.67983107       6.29828591       5.77600997       0.68161213      -1.28777933      -0.32430869
S        8.14102269       0.93826983       5.71737181      -1.79408574      -0.18269230       2.57857013
S        7.91196928       6.61861093       5.83038316      -2.54965854      -1.22411478      -0.88123286
S        3.18483747       3.76096168       9.00102250      -1.47144544      -2.02574682       0.93276024
S        3.10865851       9.25129532       9.40317435      -0.14659593       0.02397270      -2.74833012
S        6.45159571       3.60923925       8.94859251      -3.83637714      -1.20252514       2.74197435
S        6.10757933       9.17967541       9.33492165       0.41571352      -0.19991040      -2.42173791
S       -0.27336203       4.02085591       8.71092412      30.78528976     -12.10267830      26.14363861
S        0.01373838       9.05758456       9.22673781      -0.12522878       0.16421959      -2.52067542
S        1.61215361       0.88474931       9.00336711      -0.98325336      -0.19684485      -1.35912788
S        1.27136717       6.02477606       9.15327321       1.11643255       1.84953177      -1.08025241
S        4.76314139       0.77906149       9.08566492      -2.44279909      -0.33415318       1.96494043
S        4.41328873       6.32528536       8.94872410       6.92259741      -4.79142237       8.59920311
S        7.39341004       0.90053441       9.25710913       4.09391689      -1.41803169      -0.11930689
S        7.97403313       6.29626029       9.03621615      -2.86490107       6.55146456       1.04475462
36
Lattice="9.495815111215244 -0.3596015077039856 0.0 0.03538515699018507 11.226279212747572 0.0 0.0 0.0 15.0" Properties=species:S:1:pos:R:3:REF_forces:R:3 REF_energy=-233.88037109375 pbc="T T T"
Mo       1.52193206       4.31735219       7.48294649      -2.71348524      -6.88651371       3.22735214
Mo       1.70819686       9.79787674       7.64607015     -11.34759426       5.95538902      -9.89476109
Mo       4.78872490       4.34929778       7.37668974      -3.18546009       2.80598736       0.14112905
Mo       4.69167595       9.88234600       7.63763523       0.75097835       3.68376350      -3.35857344
Mo       7.88176892       4.78114927       7.48782578      -1.92940295      -7.23085737       5.29643679
Mo       8.13287749      10.07027343       7.58909418      -2.52364016      -1.30558681      -1.44609857
Mo       3.33204694       1.45636651       7.58448638      -3.55691433       5.02989674      -2.58711839
Mo       3.09406541       7.03658875       7.56409287       0.14227995       6.79470444      -0.03904050
Mo       6.20688104       1.93400755       7.69652519      -0.39551914      -1.80348635      -2.09597063
Mo       6.25744659       7.39525360       7.54063905      -0.30230266      -1.28266096      -1.17951143
Mo       0.32735567       1.85148785       7.45937648      -4.25169373      -0.25436914       0.38897458
Mo       0.03431676       7.13082498       7.46052693      -4.68462372       7.58069849       4.77937603
S        2.72356797       3.61676100       5.72825614       3.08391428      -1.53403676      -0.40840054
S        3.30055609       9.24768017       6.08433320      -2.31015491      -2.33680916      -2.79649639
S        6.53953038       3.59931385       6.02401711      -2.85628033      -0.81116462      -1.31297505
S        6.31078614       9.13523835       5.64256044       0.44832551       0.07703301       3.58697128
S       -0.47230215       3.57423466       6.01265888       2.63725662       1.30419350      -0.53139150
S       -0.10859573       8.84505331       5.93768618       1.32939005       3.16612291       0.02208424