108
Lattice="12.278037438631756 -0.024448624099179108 0.14343916796455303 0.07894721162374554 12.00612595836443 0.1902489406547024 0.10445588079614122 0.11442572211078156 12.01970047227959" Properties=species:S:1:pos:R:3:REF_forces:R:3 REF_energy=15.119577958110575 pbc="T T T"
Au      -0.01984562      -0.05168079       0.17070600      -0.66539623       0.52476984      -0.89673186
Au       0.08811323       2.14919659       2.01235725      -0.25496910      -1.38573213      -0.35350219
Au       1.95464438       0.03683010       1.85271684       0.39402160      -0.06522126       1.62613902
Au       2.19054991       2.04961198       0.15884978      -0.93185379      -0.39230879      -0.93796549
Au      -0.02337099       0.22642112       4.16381527       0.44232747      -1.26869642      -1.52362085
Au       0.17673921       1.93608934       6.02824679       0.08105576       1.91607211       0.53429597
Au       1.91608902      -0.08514611       6.10697635       1.49964868       0.88170864      -0.34522466
Au       2.19222093       2.22209202       3.99251165       0.33100458      -1.32193268       0.46023039
Au       0.01782114       0.06410614       7.88892219      -0.06258831       0.06542356       0.96939270
Au      -0.04782696       2.08665773       9.93888896       0.98449063       0.18868367       0.20274673
Au       2.20131174       0.06614077      10.17339487      -0.54526587       0.58195642      -0.32573365
Au       2.20924074       1.99817669       8.20165225      -0.86727565       0.72091381      -0.64087511
Au       0.14822148       3.95703334      -0.02125244      -0.80360916       0.57454597       0.01234756
Au       0.12988112       5.87803493       1.97837116      -2.08595466       1.79813996      -0.13209969
Au       1.89300953       4.13180792       2.15654660       2.98492696      -1.26231698      -2.01102862
Au       2.16787933       6.11127982       0.10259731      -0.08048811      -0.88128010      -0.07271546
Au       0.08863084       3.89610269       3.91579517      -1.25018005       1.08770895       2.05880836
Au       0.15906273       6.04871432       6.13106915      -0.06280233      -0.22985175      -0.16878969
Au       2.23088279       4.10906740       6.11860484      -0.54629999      -0.14084293       0.61353722
Au       2.14431467       5.95871016       3.93792496      -1.09521651       0.97952004       2.47952292
Au       0.07063995       3.96415967       8.03996142       0.27536487       0.32958749      -0.38953155
Au       0.26788140       5.99199354       9.93486263      -0.85087874       0.12648352       1.30108986
Au       2.07225543       4.01075949      10.16850651       1.20476945       0.09351249      -0.86275066
Au       2.17826329       6.18883131       8.19789006       0.94178388      -0.75942768      -0.84414560
Au       0.01518622       8.12969213      -0.00637820      -0.29190441      -0.76837156       0.64636418
Au      -0.10771651       9.86019506       2.25076794       1.20669340       1.21463755       0.05556689
Au       2.10113125       7.88358887       2.15444048      -0.54417531       1.52334095      -0.19182608
Au       1.97305376      10.07955834       0.16090982      -0.23617132      -0.92704330       0.53939864
Au       0.03985859       7.96283072       4.18551249       0.02044955      -0.47923967      -0.29968896
Au       0.06274233       9.89737779       6.01559338      -0.28655001       0.47789731       0.85685923
Au       2.33595805       8.22065434       6.24047224      -2.12515790      -1.80935586      -0.15032836
Au       2.05329553      10.22684265       4.30051450      -0.13602320      -0.77062565      -1.90982457
Au       0.20902480       8.06011239       8.04886290      -0.01373273       0.44592130       0.18247387
Au      -0.00860770      10.26150069      10.15726836       1.23636265      -0.45463165       0.19458444
Au       2.06696296       8.01774662      10.19884404       0.28587755       0.94135611      -0.60873203
Au       2.05247528      10.21995972       8.29898877       0.68092378      -0.88647913       0.30054112
Au       4.18046433      -0.03531233       0.09873659      -0.37876743       0.48586733      -1.07574237
Au       4.15688552       2.07188105       1.91658235       0.38543695      -1.24239832       2.35033211
Au       6.12275099      -0.17650769       2.07259932       0.36399830       1.33895148      -0.43945269
Au       6.08412107       1.84660636      -0.05521107       0.92014516       0.26013744       0.33847953
Au       4.16255560      -0.10177045       4.22442793      -0.56640253       1.11632720      -1.51914909
Au       4.19048941       1.98883223       6.12573765      -1.37104195       1.47508365      -0.56467163
Au       6.00036821       0.22841223       6.07449119       1.94664233      -1.78454422       0.52246336
Au       6.30008931       1.86003059       4.10465790      -0.11218519       0.59686015      -0.55680913
Au       4.15859920       0.24326486       8.08963793      -0.00179563      -1.83773891      -0.07598627
Au       4.18227934       1.99501649      10.02856587       0.39675599       0.91467015       0.66870496
Au       6.23433425       0.05869504       9.89678148      -0.65867958      -0.19207709       1.37928067
Au       6.35233061       2.22354480       7.97266102      -1.25990297      -3.12314480       2.43157229
Au       4.14060934       3.83732274       0.18012541       0.00613328       1.91730535      -1.02252714
Au       4.06205558       6.07775345       2.23701878       1.18693730      -0.79052572      -1.62674018
Au       6.29020277       3.85198501       2.30482405      -0.23871269       0.20713386      -0.94126346
Au       6.07057792       5.80580369       0.18878504       0.44799948       0.81133641       1.00042237
Au       4.10218242       4.16395025       4.24109678       0.50388730      -1.34698473      -0.40744212
Au       4.11123625       6.23328606       6.06915490       0.19852498      -0.57907666       0.69500389
Au       6.22358525       3.94941657       6.31940356      -0.24310130       2.19416195      -3.45915718
Au       6.07915408       5.84694482       4.14744970       1.30071891       0.64516948       0.22580677
Au       4.38558236       4.22684717       8.22380623      -2.86631995      -1.39965863      -0.27751103
Au       4.37551632       6.24764686      10.16689793      -1.89408648      -0.83880522       0.70363279
Au       6.17875264       4.19397742      10.21621746       0.54708476      -1.75955104       0.53376928
Au       6.19759267       5.90490915       8.27869355       1.80855401       2.30452524      -1.09387024
Au       4.05029483       8.17065969       0.07103391       0.18660958      -2.73856322       2.66496282
Au       4.02498098      10.14847145       2.07095098      -0.36877612      -1.06215055       1.51241045
Au       6.08076683       8.05068373       2.35166044       2.01141854      -0.60575456      -2.62585324
Au       6.08338193       9.91701012       0.34122230       1.23333774       0.09261462      -0.82489749
Au       4.36885982       8.03437281       4.03877151      -2.35780888       0.65436691       1.98328157
Au       4.01627094       9.94603070       6.06893296       2.62432733       1.15112497       1.24129452
Au       6.31494160       7.89780552       6.21093442      -0.58061637       0.67560806       0.17234979
Au       6.31733166      10.06346920       4.11673745      -0.53595522      -0.27892993       1.38193569
Au       4.33659768       8.15838110       8.28337293      -0.28161622       0.27531708      -0.66651753
Au       4.09793816       9.94181171      10.39379592       0.63940645       2.60110585      -2.87562656
Au       6.23772804       8.00759391      10.21040289       1.43083856       0.99381512       0.29389336
Au       6.33959100      10.25141377       8.15797251      -0.46689202      -1.07453278       0.04454093
Au       8.35528166      -0.20635529       0.11770533      -1.38582092       1.67687957       0.01983429
Au       8.26951552       1.84615183       1.98675352      -1.30768848       0.70068809       0.10746052
Au      10.21675291       0.18518987       2.16123307       1.43435093      -1.33975045      -0.64092788
Au      10.41806502       2.10239151       0.13819344      -0.45879311      -1.18353047      -1.02343859
Au       8.33408230      -0.17102246       3.94585053      -1.75526900       1.81406942       0.92845754
Au       8.38251555       2.16066161       6.03024080      -0.92808889      -1.15734531      -0.63155460
Au      10.29623364       0.07924534       6.27647846      -0.68222267      -0.56584211      -0.54117044
Au      10.32091722       1.98381767       4.10748124      -0.62180317       0.41454031       0.11913753
Au       8.22534838       0.12075714       8.25575601       0.60692892      -0.93271103      -1.82277599
Au       8.26712148       1.97921250      10.03841627      -0.04841386       0.60388225       1.60197390
Au      10.41715014       0.20160842       9.97806093      -0.91792348      -0.36060836       0.78358324
Au      10.14111653       2.09470442       8.02284374       1.54413236      -0.21324289       0.80286286
Au       8.34153971       3.90987677       0.01659120      -1.99878734      -1.56248421       1.13987312
Au       8.41062940       5.87204754       2.10792203      -1.05972984       0.98239627       0.17266484
Au      10.13686827       3.84693511       1.99469157       0.97328926       0.82660269       1.41671261
Au      10.09332964       5.85254571       0.03600988       2.42502595       1.39620128       1.12362200
Au       8.28295018       4.09617062       4.12306143      -0.21508928      -0.46002465       0.38278202
Au       8.20425628       6.04578725       6.35060280       0.69610102      -0.51513454      -0.58752526
Au      10.45069419       3.85627102       6.06539855       0.12860791       1.42892739       0.19630294
Au      10.20068805       5.92058606       4.24971700       0.64403940       0.62297461      -0.06254402
Au       8.24781625       3.88172837       8.12162173       0.80903075       2.37678719       0.31011749
Au       8.32137965       5.92278743      10.34055106      -2.12959142       2.60543197      -1.67275606
Au      10.16584492       4.24695965      10.03901127       2.10240956      -2.52684135      -0.23007426
Au      10.47823871       6.22003420       8.41961903      -0.58083220      -0.47963934      -1.83170790
Au       8.35880012       8.09957591       0.27945205      -0.89209535      -1.07081830      -0.35366262
Au       8.38015549       9.86169772       2.27187752      -0.70112401       0.91203440      -0.15156187
Au      10.30742780       8.14580993       2.23476843       0.04788209      -2.07144227       0.35783355
Au      10.25152301      10.04055642       0.18465875       1.60187902      -0.41877619       0.75734215
Au       8.12871576       8.01707771       4.19578131       0.79278523      -0.85884571       0.31767034
Au       8.19640355       9.99302347       6.21057411       0.14732810       0.12826419       0.53075976
Au      10.26755551       7.99270861       6.33051284      -0.02878300      -0.08842729      -0.59372056
Au      10.25105643      10.20241619       4.45117946       1.33668071      -1.63917539      -0.34590138
Au       8.29999119       7.99541319       8.24976630      -0.38207548       0.41570785       0.37429966
Au       8.47761840      10.14519559      10.39234069      -1.22511013      -0.43661491      -1.33571680
Au      10.38446482       8.13223194      10.17804457       0.01043343      -0.57777954       1.29288052
Au      10.46108173       9.94197676       8.36912632      -0.77096679       0.82777875      -1.37083650
108
Lattice="12.312742646539727 -0.14715886507938247 0.04575189621676795 -0.1619617007080262 12.258741270517941 -0.1662027124705919 0.17437592908025046 -0.1450368279848791 12.352007117573004" Properties=species:S:1:pos:R:3:REF_forces:R:3 REF_energy=11.260168242950371 pbc="T T T"
Au       0.12035367       0.03747280       0.11304964      -0.58738420      -0.05421589      -0.25465105
Au       0.12011497       2.19736157       1.93232074      -0.92875734      -0.54744355       0.37402771
Au       2.11721679      -0.21067960       2.11275945      -0.59824669       0.90908544       0.61043009
Au       1.89364668       2.04457731       0.00889707       0.77966392       0.28813299      -0.54979602
Au       0.04451937      -0.03929290       4.22290506       0.19184390       0.24225086      -0.28199955
Au       0.17989223       1.96746642       6.18814048      -0.64684288      -0.05896061      -0.12080304
Au       2.31180623      -0.24915146       6.03047030      -0.19751523       0.81644522       0.32673451
Au       1.91833907       2.03339677       4.06470389       1.08424304      -0.66858492      -0.21452793
Au       0.22597919      -0.02819865       8.16812652      -0.19714719      -0.09024614       0.39514539
Au       0.27766628       2.02727238      10.17385279      -1.01042816      -1.50995388       1.57763956
Au       2.14311386      -0.21961451      10.16400924       0.19806481       0.26667282       0.52008363
Au       2.00049413       2.09635683       8.18975789       2.08260182      -1.41771377      -0.08873297
Au      -0.10065930       4.17812137      -0.03420368      -0.23893723      -0.34783472       0.62858492
Au       0.12253780       6.21731843       1.96731432      -1.18168539      -0.62816175       0.15826911
Au       1.97774299       4.23220043       2.09799636       0.61068036      -0.87278291       0.03845443
Au       2.15162079       5.95223559       0.06473743      -0.03960613       0.23874252      -0.92981018
Au       0.05896763       3.88667015       4.09723800      -0.50918770       0.68764587      -0.15242899
Au       0.08064566       5.86177330       6.07462939       0.48851472       1.15883380       0.60703537
Au       2.21548431       3.90734581       6.11164720      -0.76737527       0.41476957      -0.34663682
Au       2.00619388       5.97726950       4.20923642       0.09260860       0.11850627      -0.36256788
Au       0.17478100       3.83379124       8.37808437      -1.80180608       1.80162956      -1.67766132
Au       0.21601243       5.92206999      10.34499654      -1.42170558       1.26079980      -0.51004788
Au       1.98601763       4.14049848      10.31183757       1.95300869      -2.00735234       0.70971629
Au       2.14744355       5.84432923       8.31800873      -1.21613666       1.52906444      -1.37250312
Au      -0.29637467       8.06882540      -0.25359306       1.16316461       1.60289811       0.43975304
Au       0.00480175      10.07072661       2.08442088      -0.20759517       1.27275758      -1.90950637
Au       2.03571958       7.93825998       1.75766329       0.25034030       1.52508782       0.72232780
Au       1.73781886      10.23346132      -0.01028422       0.49729054      -0.34927296      -0.71956372
Au      -0.15442803       8.26391211       3.82942667       0.68454860      -1.66022509       2.08059057
Au       0.07260542      10.31421748       6.14634466      -0.57683196      -0.85373821      -0.13220371
Au       2.11058559       8.21064138       5.88888759      -1.72170853      -1.47704505       1.46650280
Au       1.85599384       9.99271511       3.98827116       0.92972231       0.92508757      -0.21818300
Au       0.10635140       8.12780770       8.26432204      -0.41410822      -0.62614747      -0.46056157
Au      -0.12756961      10.18860214      10.03205360       0.56186895       0.03517741       0.39193035
Au       1.99776608       8.11106556      10.38224469       0.07609447      -0.15378087      -0.50536284
Au       2.07802375       9.91620016       8.15031806      -0.34290326       0.43473839       0.12768716
Au       3.92118777       0.10460533       0.09908195       0.46691719      -1.09673957      -1.39079848
Au       3.97556773       1.80658619       1.91963132       0.43046806       1.24479549       1.16802055
Au       6.37744485      -0.11432798       2.19517618      -0.46274519      -0.76682074      -1.19147033
Au       6.18394104       1.99850937      -0.14677240      -0.59152666      -0.33679700       0.16528313
Au       4.34078264      -0.17686151       4.16379322      -0.60132255       0.26220083       0.27132092
Au       4.24435227       1.98124544       6.33979150      -0.16059116      -0.42879101      -0.78202984
Au       6.10293488      -0.14275675       6.16049326       0.60293821      -0.33791831       0.19199730
Au       6.17717051       1.76888551       3.96614905      -0.44527116       1.29467414       1.16798786
Au       4.13172839      -0.22386233       8.22108333       0.06119053       0.35278667       0.11758624
Au       4.26696223       1.92705821      10.24561380      -0.24879601      -0.12911495       0.01828020
Au       6.26519784      -0.30739205      10.35153771      -0.55631010       0.32380889       0.23734511
Au       6.17244469       1.68727683       8.19720693       0.27157138       0.46773633       0.34889598
Au       4.03991339       3.92743128      -0.01116710       0.39785422       0.04897700      -0.01216233
Au       4.07863811       6.13694575       2.04999652       0.45835414      -0.62461478      -0.19451439
Au       6.19241997       3.91498051       2.14111579      -0.68900718       0.35848359      -0.27446202
Au       6.09504823       6.02835848      -0.00982042      -0.10232912      -0.03461865      -0.11838212
Au       4.05264856       3.99394422       4.17186771       0.49982503      -0.06094815      -0.44211619
Au       4.26501582       6.17622215       6.10960600      -0.18396775      -0.48149115      -0.26464465
Au       6.19768210       4.06009741       6.06925888      -0.03823292      -0.32336245       0.07229917
Au       6.26846873       6.00510225       3.90345299      -1.09943960      -0.94141868       0.85779001
Au       3.99533459       4.07730020       8.01674831       1.69923106      -0.56281403       0.73171383
Au       4.08082455       5.89310567      10.09468632       0.99065470       0.22726017       1.17260646
Au       6.17325471       3.98888066      10.06668745      -0.20072749      -0.10625841       0.61498984
Au       6.32251046       6.10171919       8.12335063      -0.55382024      -0.86886978       0.41371890
Au       3.85771824       8.16377739      -0.24768215       0.84921534       0.12901008       0.23181780
Au       3.94430986      10.32576364       2.13360201       0.59609734      -1.20431728      -0.92053125
Au       6.18630147       7.99912655       2.04580801      -0.99366926       0.27198807      -0.90257700
Au       6.10356579      10.09717497      -0.05927086      -0.61426094       0.00873549      -0.10439791
Au       3.85868945       7.95871868       4.03181985       1.33884940       0.54350046      -0.72522646
Au       3.92196795       9.96040910       6.18727365       1.56366324       0.57997732      -0.50461704
Au       6.33123802       8.04878411       6.22370559      -0.80850948       0.01962136      -0.30059114
Au       6.27565721       9.95033104       3.98100764      -0.64616821       0.72683627       0.31900938
Au       4.06955279       7.85876972       8.24125230      -0.32020028       0.45998592      -0.48327377
Au       4.08810435      10.03343152      10.03035683      -0.33891884       0.28169976       0.84970460
Au       6.06608079       8.14089217      10.02327304       0.40021929      -0.75630079       1.20679706
Au       6.03079477       9.96217081       8.11512412       0.34503947       0.74817219      -0.57133889
Au       8.24307317      -0.10078992      -0.13585260      -1.03750909      -0.08760143       1.54960241
Au       8.10803112       2.05828018       2.11650415       0.89906353      -0.62152605      -0.64624139
Au      10.34934115      -0.07872389       2.20195564      -0.09452665       0.00323984      -0.33602282
Au      10.05686865       1.86713451       0.02623710       0.60666543       0.44500016       0.19284590
Au       8.20200300      -0.00865997       4.14086597       0.61162663      -0.63748325       0.47696218
Au       8.37614048       2.01330543       6.18072096      -0.26110526      -0.53201980       0.44273572
Au      10.51162773      -0.16030123       6.35423986      -0.70639491      -0.19768076      -0.28929417
Au      10.22798688       1.87167233       4.14032625       0.68975726      -0.25034601       0.02985854
Au       8.16673760      -0.23537613       8.43210774       0.46132854      -0.16841242      -1.17039372
Au       8.37914765       1.69515624      10.23168233      -0.16010900       0.76303048       0.34830428
Au      10.28257335      -0.43356716      10.50245003       1.36235296       0.88051119      -1.06957081
Au      10.32915881       1.74681397       8.28448842       0.10683477       0.20465367       0.02231815
Au       7.95743365       3.89935002       0.05631375       0.72424922       0.74109081      -0.42625900
Au       8.21008481       6.19981430       2.05421084       0.35618835      -0.95391660      -0.90156198
Au      10.22669664       4.04401492       2.20272468       0.15721173      -0.20648048      -0.63628684
Au      10.26791640       6.19202274       0.06782729      -1.31501384      -1.55853358      -0.08992744
Au       8.35935375       3.78543720       4.18540147      -0.58594940       1.06326714       0.05247915
Au       8.19073769       5.97998783       6.18504443       0.55042295      -0.43665353      -0.34684199
Au      10.48174565       4.08492752       6.07402053      -1.20771056      -0.90749079       0.53163440
Au      10.33126473       6.05838605       4.01095807      -0.23240387      -0.44377530       0.18267810
Au       8.12030639       3.70782875       8.32070902       0.57812155       0.45780986      -0.36510558
Au       8.26870742       6.10461677      10.22672856      -0.50167220      -1.22174555       0.74672333
Au      10.54311170       3.80738108      10.39353780      -0.91590570      -0.00777493      -0.10768257
Au      10.12981635       5.93223171       8.31052055       0.92250827      -0.73149114      -0.43140252
Au       8.27040130       8.20342151      -0.26551225      -0.63805427      -0.33412726       0.68602016
Au       8.05167061       9.91281840       1.79437977       0.60459101       0.80479857       0.58117148
Au      10.25182931       8.11099227       2.09548090      -0.92167646      -0.23370969      -0.89577863
Au      10.27183341      10.18875793       0.01997296      -0.05310068      -0.18546209       0.17446033
Au       7.97823142       7.91985672       4.08579427       1.85920418       0.74133498       0.30644330
Au       8.30396510       9.84679345       6.07385430       0.21568992       0.68239711      -0.03393039
Au      10.31074733       7.78918629       6.06387055       0.12607263       0.43261400       0.40407384
Au      10.34203005      10.11328485       3.91202337      -1.22969775       0.38709995       0.94720481
Au       8.35788370       7.91690962       8.29570874      -1.20087558       0.48405830      -1.42787097
Au       8.13841775      10.03277589      10.14411430      -0.47954264      -0.38434743       0.29433260
Au      10.20788770       8.08362079      10.09570151       1.42636390      -0.48576658       1.03552381
Au      10.07582604       9.93306489       8.22135139       0.92836978       1.00151844      -1.17259701
108
Lattice="12.291427661599883 0.1994973480267059 -0.08145517719553401 -0.036823219547487164 12.023183530421221 0.029948771849213462 0.19903201490516692 0.08035240404826344 12.20654015537472" Properties=species:S:1:pos:R:3:REF_forces:R:3 REF_energy=14.815714342178897 pbc="T T T"
Au      -0.04305236       0.16611950      -0.00123336       0.34603270      -1.02793965      -0.13683060
Au      -0.11921844       1.96340737       1.86628149       0.20988877       0.03052666       0.93113217
Au       1.96253489      -0.14629086       2.00215946       0.28744069       1.10903714      -0.55502160
Au       2.09625018       1.97443046      -0.04043169      -1.73408814       1.15243621       1.72963970
Au       0.25002771       0.12756938       4.08518937      -1.14024148      -0.01520323       0.04975898
Au       0.00719515       2.20283884       6.00230039       1.02231740      -0.84272062       1.31415669
Au       2.07822438       0.23705169       6.10151104       0.40599380      -0.42343900       0.27427932
Au       2.20570526       2.10019553       4.12163800       0.54842491      -1.22559858      -0.63405033
Au       0.05244133      -0.04988291       8.06669038       0.24184540       0.91715832       0.07235887
Au       0.02189943       2.22055000      10.09040703       0.66313502      -0.56645083       0.35029368
Au       2.23902705       0.21699966      10.27207058      -1.92424307      -1.66169916      -0.95643453
Au       2.15047659       2.08118467       8.32698974      -0.07727540      -0.18554076      -1.25158390
Au       0.05756458       4.13358322       0.17100451       0.86309306      -1.54641597      -1.97541433
Au       0.12979633       5.89905557       2.07426604      -1.45828704       2.76270765      -0.39607802
Au       1.91022654       4.11553832       2.21297019       4.09596074      -1.92590534      -3.46637594
Au       2.03525249       6.01803032      -0.18426438       0.28038609       0.28267546       0.45127090
Au       0.23797941       3.87571305       3.89526128      -3.02853991       0.21379867       2.33334685
Au      -0.02046896       5.87798014       6.10029160       0.78196908       0.62189630      -0.23843415
Au       2.14224800       4.00618158       5.92006133       0.23841483       0.77261612       1.26667612
Au       1.94114382       6.02542721       3.89445662       1.08888042       1.44775077       2.24952524
Au       0.19968949       3.94410433       8.06850499      -0.73805662       0.67759736      -0.37104998
Au       0.10509871       6.04519596       9.98775547      -0.49494143       0.29270373       0.75869071
Au       2.04698503       4.25304356       9.96901708       0.84316295      -0.61674828       1.35184212
Au       2.16611462       6.09421040       8.07232962       0.04182021       0.39770579      -0.54951722
Au      -0.05201800       8.12768814       0.15644733       0.00364531      -0.82889520      -1.14739845
Au      -0.09337460       9.96170785       1.95637381      -0.22999112       0.90186622       0.47896388
Au       2.04913983       8.13540066       1.93211449      -0.09187973      -0.07829352       0.13042972
Au       1.95017956      10.22472301      -0.16919084       0.36644893      -0.81000007       0.78810846
Au       0.02610303       8.12686304       3.94899417      -0.51599237      -0.30033432       0.24788984
Au      -0.11222040       9.91477796       6.29575666       1.32305615       1.27005287      -1.04166438
Au       1.92724238       7.96421024       5.92217347       0.39536976       0.18089954       0.37529751
Au       1.92848105      10.12741302       3.97688373       0.36839672      -0.86172962       1.06884071
Au       0.13582402       8.10510211       8.29743342       0.57788693      -0.44175247      -0.43508579
Au      -0.06292945      10.22762773      10.24472174       2.00174175      -0.98968051       0.37751007
Au       2.05497987       8.22484054      10.32070340       0.42768752      -0.17221499      -0.47199545
Au       2.05227866      10.27365491       8.13085786       0.37295897      -0.74481159       0.11109637
Au       4.13851234       0.26035893      -0.08253729      -0.55083777      -3.21550560       2.80166729
Au       4.24944109       2.01111475       2.13194850      -0.58224014       0.13659072      -0.52684137
Au       6.21917940      -0.00031698       1.95930621       0.50135075       0.82000701       0.79446504
Au       6.06663088       1.93485595      -0.22380222       1.42268159       1.58598454       1.09318746
Au       4.10207802      -0.09910309       3.90789010       0.01356896       0.77064899       1.25438693
Au       4.28059469       2.19377573       6.17654197      -0.59043724      -0.19471963       0.28479978
Au       6.17209111       0.29593266       6.10007471      -0.05464401      -1.36476648       0.30766850
Au       6.05633117       1.98788420       4.11034876       0.43559153       0.60509068      -0.77461826
Au       4.09900814       0.12298447       8.30725150       0.56872336       0.27812832      -1.25802489
Au       4.05846840       1.94395530      10.34719037       2.11359360       3.55792296      -3.32000111
Au       6.34542938       0.01747300      10.29031009       0.16481022       0.61273862      -1.67018936
Au       6.42441676       2.17166103       8.15067412      -1.43213707      -1.20356815      -0.58798603
Au       3.99414302       3.89443484       0.02065824       0.16775461       0.80825261      -0.10110371
Au       4.02980502       6.15693137       2.15674409       0.05852117      -0.96168860      -1.76214062
Au       5.97387564       4.15915409       1.89619091       0.57071802      -0.40389626       0.44906744
Au       6.27685762       6.01280624       0.01855485      -0.75261877       0.50166290      -0.66297697
Au       4.17262849       4.05947769       4.12272622       0.29280852       0.46066028      -0.23294215
Au       4.26855481       6.14504220       6.19446163      -0.54626268      -0.43258429      -0.11576104
Au       6.42632226       4.11536167       6.07835863      -2.25062807      -0.09053475       0.12566092
Au       5.99863418       6.25653600       4.05118554       2.35971298      -1.78322162       0.17497069
Au       4.18074073       3.96542401       8.27638720       0.39585405       0.51370311      -0.29928744
Au       4.20259385       6.21808386      10.01968912       0.12936788      -0.57641528       0.71340875
Au       6.48391929       4.04581356      10.02118893      -1.22136047       1.56887688       0.97085364
Au       6.40358338       6.32994181       7.99679920      -1.45685122      -2.48955103       1.11130361
Au       4.06051410       8.17535276       0.14416042       0.19046490      -0.35780774      -0.73026941