108
Lattice="12.232008618302771 0.06844984028686443 -0.0368136533893853 0.029365929115170865 12.18726718362892 0.06024193859690859 0.06047499039397997 -0.2605788587527226 12.144405123361132" Properties=species:S:1:pos:R:3:REF_forces:R:3 REF_energy=11.15597570163467 pbc="T T T"
Au       0.05179042      -0.04104566       0.00362026      -0.20496585      -0.04292120       0.22053771
Au       0.09004348       1.99587391       2.18489979      -0.85692411      -0.46422844      -0.81345407
Au       2.16144589      -0.04387792       1.99812729      -0.31339817      -0.13958296       0.17892781
Au       1.75853001       2.00996928      -0.13142218       2.92716538      -0.42853219       1.99671201
Au       0.04228128      -0.07157255       4.11772062      -0.01846649      -0.23794551      -0.08571394
Au       0.17479886       1.89829482       6.31028452      -0.89932667      -0.16833276      -1.98095308
Au       2.09215074      -0.24990276       6.00985977       0.22923768       0.86856051       0.34612436
Au       2.02644608       2.01497260       3.95731477       0.89468462      -0.77463039       0.78031453
Au       0.01051907      -0.18982327       8.05145800      -0.34476756      -0.56592399       0.12782501
Au       0.13643169       1.87819429      10.24703464      -2.35976115      -0.33333549      -2.23988045
Au       2.05596141      -0.08548799       9.97780229       0.00443136      -1.36766762       0.44626725
Au       1.94504065       1.74752010       8.10109597       1.22986415       0.81493249       0.41993881
Au       0.13002645       4.00220819      -0.02758869      -0.97716229       1.46859421       0.76511176
Au       0.00316033       6.10748659       2.00642596       0.25123343      -0.37780613       0.32542400
Au       2.00519422       3.89586137       1.98084045       0.44172859       0.89929992       0.02146077
Au       2.17109724       6.11413450      -0.05000009      -0.50159322      -0.64951303       0.63033522
Au       0.15356137       3.91704142       4.21021125      -0.16944543       0.41479749      -0.64046256
Au       0.18528116       5.96894533       5.95246858      -0.64492330       0.45441834       0.73644095
Au       2.30764430       3.98226888       6.05375890      -1.81971126       0.65969220      -0.18554602
Au       2.16912219       6.08841256       4.20321424      -0.60734203      -0.42971243      -1.94589693
Au      -0.01612948       3.92055050       7.99776371       0.32487369       0.70563834       0.65844454
Au       0.13171223       5.87419001      10.17855950      -0.01096257      -0.09430890      -0.21073404
Au       2.08421760       3.83158277      10.04745952       0.15280700       0.27221468       0.04597136
Au       2.17271075       6.08029306       8.06458861      -1.22888575      -0.48616258      -0.43613086
Au       0.07493134       8.16806315       0.04097107      -0.71980236      -1.00833216      -0.68102150
Au      -0.11810880       9.98246644       1.99617094       0.96325056       1.78468431       0.33990872
Au       1.85442408       8.23362636       2.09486353       1.25190207      -0.79303567       0.13187760
Au       2.06014361       9.94844071      -0.13832108      -0.58571848       2.90526739       1.28590115
Au       0.03950148       8.23503417       4.01843191      -0.33720982      -1.02063102       0.79821672
Au       0.14108890       9.97777632       6.12792810      -0.84736132       0.22343388      -0.27888001
Au       2.20995127       7.97136850       6.03721775      -1.12527255       0.17975438       0.76319636
Au       2.22510510      10.08516046       4.20132156      -0.80838623       0.68255409      -0.88530220
Au      -0.00863094       8.09179297       8.16379410       0.95450044      -0.96608490      -0.86376546
Au       0.11834620       9.95206987      10.11999172      -0.14904207       0.41305072      -0.05166936
Au       2.10847293       7.87484502      10.25031789      -0.32951103      -0.45167565      -1.75342827
Au       2.08315065       9.84409433       7.97239372       0.02613067       0.56710226       1.49096561
Au       3.90466439       0.08461369      -0.12742165       0.30031862      -0.32279460       0.26357777
Au       4.12231827       2.02425545       2.01536577      -0.47949253      -0.51902113       0.25710684
Au       6.16992399       0.00662546       1.73468772      -0.30977043      -0.12790040       1.54459366
Au       6.08853611       2.10794643       0.15566178       0.63618787      -0.82183457      -1.62440895
Au       4.26614030      -0.20035806       4.00089129      -0.30458573       0.72634793       0.11832961
Au       3.95585654       2.07572689       6.17125729       1.12676178      -1.71954501      -0.71079016
Au       6.18130059      -0.07945502       6.19185885      -1.65968278       0.00424632      -1.87192325
Au       6.26218948       2.09438097       4.08543652      -1.36091559      -1.43237250      -0.17443682
Au       4.08273004      -0.07419014       8.16560305       0.33027657      -0.23047764      -0.21165639
Au       4.11356261       1.80175387      10.23143804       0.19125095       0.40312878      -0.46728694
Au       6.33281175      -0.25786371      10.07559311      -1.22963419       1.04478619       0.27868481
Au       6.19630860       1.94037678       8.03566694      -0.83232763       0.23080524       1.00075769
Au       4.27547691       4.12744853       0.06094777      -2.18071308       0.05642505      -1.13435305
Au       4.27798674       6.02811423       2.03307408      -1.37222421       0.97346236      -0.19680326
Au       6.01053989       4.03598246       1.87684859       1.73859848       0.34518133       2.12464848
Au       6.20547221       6.16985819      -0.01599279      -1.52691416      -0.37296815      -0.01788178
Au       4.09724081       4.07452603       3.94236486       0.22888010      -0.49090764       0.19664064
Au       4.14267345       6.05611176       5.91182491       1.13182001      -0.38193409       0.98479406
Au       6.22452425       3.79895164       6.06211693      -0.36644822       1.23233198       0.50578561
Au       6.03450649       6.18412355       3.94413708       0.96124338      -0.06663615       0.43261329
Au       3.96242252       3.92485498       8.06270921       1.14841567       0.08972226       0.75900363
Au       3.99195447       5.95188268       9.93903745       1.00086383      -1.23392934       1.64539442
Au       6.07256468       3.82197644      10.20223366       0.40492775      -0.02289813      -0.74461533
Au       6.30055077       6.06441750       8.09265685      -0.23546903      -1.44886142      -0.91450449
Au       3.85418267       8.18674670       0.17494745       1.75495458      -1.08632787      -0.23728261
Au       4.23526602      10.18173769       1.94304764      -1.06379479       0.62367858       0.78821379
Au       6.09313006       8.30902134       1.90414903      -0.18870433      -0.90582590       0.92700682
Au       6.02569179      10.28453606      -0.01132114       0.47842898      -0.45905289      -0.67128910
Au       3.99889631       8.21359890       4.12213071       1.34438239      -0.66095646      -1.11859824
Au       4.09386519       9.93400569       6.31487362       0.37575016       0.91246042      -0.75265680
Au       6.16337391       8.16851309       6.18332038       0.16986329      -1.41148274      -1.04606048
Au       6.10854409      10.05212718       4.22456132       0.41124694       0.29181809      -0.49799011
Au       4.28348189       7.78625057       8.17913818      -1.06779095       1.42269138      -1.20790913
Au       4.14008216       9.85839123      10.18444261      -0.02434529       0.58088612      -0.57156287
Au       6.05101774       7.89527512      10.06224470       0.73315458       0.46048738       1.26957273
Au       6.13081345      10.00941382       8.02650820       0.02217768       0.32902923       1.32070072
Au       8.31199032       0.09496155       0.15491387      -0.28430403      -0.33773413      -1.13838278
Au       8.15363790       1.97853562       2.18540697       0.45792156       0.24528749      -0.65911052
Au      10.14561371      -0.00421748       2.06539422       0.67728258       0.42892990      -0.00732699
Au      10.07446226       2.15938220       0.03769699       0.45782327      -0.00740007      -0.15601220
Au       8.30176327       0.04777806       4.15359044      -0.69760248      -0.40678523      -0.38123397
Au       8.17876204       1.86028796       6.26869899       0.78890607       1.07240745      -1.21758462
Au      10.07090845      -0.21589920       6.09803732       1.16637472       0.14731393       0.02710955
Au      10.38089177       2.02034820       4.12742769      -0.43443289      -0.06025910       0.08119744
Au       7.99540880      -0.17804051       7.88433287       1.84849094      -0.64372323       2.05535081
Au       8.28800365       1.70497224       9.97805361      -0.28950167       0.50765102       0.56930627
Au      10.29513886      -0.05392508      10.07376275       0.05612421      -0.45561500       0.03702336
Au      10.29556875       1.96831231       8.05408967       0.17700477      -0.24624849       0.19093869
Au       8.05499051       4.16454476       0.05684778       0.63058026      -0.65940252      -0.56495232
Au       8.26883698       6.12704365       1.91279606      -0.63922623      -0.65550631       1.55594268
Au      10.28224234       4.07589601       1.96519638      -0.01206020      -0.09756459       0.53463549
Au      10.17855990       6.08164941       0.08832730       0.52836821       0.15314562      -0.90309752
Au       8.04280791       3.92184741       4.01079596       1.00523754       1.12404899       0.10859525
Au       8.36096796       6.11440544       5.91369702      -3.33553783      -0.95404217       2.15470770
Au      10.36850136       4.12411652       5.94420433      -0.59694523      -0.64579252       0.73083465
Au       9.97603598       6.05659334       4.15982041       2.64462870       0.07252104      -2.82088502
Au       8.36390391       3.84725366       8.26700620      -0.46426876       0.38853585      -0.42011223
Au       7.99695796       5.88531271      10.08419507       1.18397477      -0.05943026       0.30733146
Au      10.36875869       4.03214513      10.20516257      -0.38791929      -0.43375599      -0.29042061
Au      10.11328514       6.06321779       8.14661720       0.44348024      -1.36286947      -0.34339075
Au       8.00712626       7.96377663       0.11941779       1.32490574       1.82839792      -1.39912219
Au       8.17121325      10.02974119       2.02890951       0.08719278       0.82502518      -0.20130788
Au      10.25940107       8.13017140       1.87835215      -0.46066723      -0.21166005       0.46359641
Au      10.40636781      10.31351932      -0.01401417      -1.23091761      -0.25840864      -0.66391836
Au       8.16489856       8.11956714       3.95079176      -0.14396749       0.03071112       0.08393088
Au       8.24164916       9.93832654       6.09080832       0.06078993       0.39347680      -0.48745898
Au      10.12629815       7.93978850       6.24625807       1.42558821       1.10035603      -0.83714088
Au      10.24389304      10.14697855       3.86652063      -0.38000131      -0.13341476       1.16722415
Au       8.15486618       8.04287999       8.13130257      -0.09403342      -0.01782960       0.47411595
Au       8.01413686      10.00525396      10.18265266       1.28026021      -0.71065798       0.09879876
Au      10.39168983       7.89921416       9.90561398      -0.89301124       0.36145074       2.20504841
Au      10.15845171       9.92967178       8.18946454       0.02090161       1.15344685      -0.05670842
108
Lattice="12.221110744258727 0.05587978521423148 0.038762577151474804 0.039897963473923374 12.198829269454503 0.168757012080642 0.1102466514368058 -0.10601538975982669 12.248027127297426" Properties=species:S:1:pos:R:3:REF_forces:R:3 REF_energy=8.052938015807332 pbc="T T T"
Au       0.08923734       0.03149673       0.11314244      -0.87563143      -0.26662240      -1.04347321
Au       0.04383151       2.03551575       2.08158808      -0.31205831       0.02928288       0.03264658
Au       1.85340182      -0.01639577       1.98097323       1.51633583       0.17362297       0.57286210
Au       1.92485665       2.18585334       0.08500735       0.58976951      -0.55844157      -0.16401789
Au       0.03376578      -0.09181880       4.11229267      -0.30777343       0.49012949       0.46618135
Au       0.16091660       1.89743393       6.15165690      -0.58319093      -0.21977787      -0.05552588
Au       2.17878177      -0.23729451       6.12471702      -0.36625566       0.77486663       0.05344889
Au       2.03732120       1.99373006       4.06709945       0.67627818      -0.52104973      -0.16227988
Au       0.08726023       0.12168580       8.13295917      -0.06205876      -0.69728078       0.41433010
Au       0.12769297       2.14426670      10.17981388      -0.28197236      -1.61791689       1.21464307
Au       2.31019154      -0.07850056      10.39133932      -1.58788763       0.53606994      -0.86374970
Au       2.19201933       2.00248542       8.19337495       0.33482082      -0.68236689       0.11787560
Au      -0.04910482       4.07385558       0.14598848       0.27349453       0.05909758      -0.65144021
Au       0.03701228       6.05008312       2.10063811       0.91551778      -0.64887875       0.53475485
Au       2.16777322       4.18043663       2.03733557      -0.48283880      -0.44299272       1.01129889
Au       1.98994199       6.14666382       0.24359214       0.55008916       0.42821862      -0.91232478
Au       0.16464724       3.90575274       4.11252045      -0.56798178       0.74937973      -0.11978843
Au      -0.01798805       6.01965569       6.36883307       0.54324932      -0.32159107      -1.46312534
Au       1.96301437       3.86069550       6.10387092       0.78702959       0.79233297       0.35907698
Au       2.12228072       6.13546495       4.21725949      -0.45383004      -0.10957425       0.21165940
Au       0.20436563       3.81929094       8.34043741      -0.40225869       1.28851749      -1.29826074
Au       0.08061166       6.08421791      10.15872524       0.71990405      -0.33783711       0.94479433
Au       2.14251899       4.01087064      10.38497714       0.41580402       0.43740148      -0.22007354
Au       1.97177308       6.04112626       8.14766682       1.35336202      -0.93634660       0.60488115
Au       0.07714825       8.21027450       0.24122170      -0.15154516      -0.40781562      -0.77326704
Au      -0.00188020      10.24074447       2.31805886      -0.67427024      -0.38484693      -0.91030579
Au       1.91750018       8.18543140       2.25615408       0.87543553      -0.37496253      -0.05661837
Au       2.04422745      10.05392700       0.24138685       0.01007077       0.21155483      -0.29874485
Au      -0.05660336       8.07937924       4.19116798       1.62112950      -0.10836368      -0.19649799
Au       0.15992543      10.05002021       6.19618604      -0.28747936       0.67202900       0.52020313
Au       2.12846531       8.18949750       6.47172367       0.33239054      -0.14923305      -1.57182556
Au       1.95610086      10.17120009       4.12111348       1.25156598      -0.21117610       0.48432030
Au       0.20197753       7.96802147       8.21039127      -1.35110746       1.34564227       0.74825198
Au       0.06619343      10.06972501      10.37963988       0.15497770       0.05929097      -0.05891919
Au       2.20369278       8.05294323      10.19266527       0.02369474      -0.15016360       0.62556890
Au       2.21637648      10.09903156       8.42861617      -0.37449196       0.63014727       0.12225474
Au       4.00292970      -0.14160088       0.00951826       0.26414153       1.60276014       1.49082825
Au       4.22832295       2.05018979       2.06241790      -1.15411141      -0.12764229       0.31177160
Au       6.04189511       0.18604731       1.95775888       0.60796419      -0.69773083       0.39384673
Au       6.04466561       2.11808152      -0.13809461       0.20694239      -0.51461300       1.00561779
Au       4.23791153       0.04570744       4.18551968      -0.18159800      -0.36297767      -0.54845287
Au       4.19128827       1.98264476       6.05874572      -0.30947658      -0.07741553       0.49563338
Au       6.15167115      -0.12259143       6.19201038       0.53785368       0.25944042      -0.34513492
Au       6.23463190       2.17342050       4.16735993       0.09097605      -0.96809269      -0.65120126
Au       4.23965888      -0.08176481       8.13044456      -0.37378633       0.25414364       0.24062481
Au       4.21959264       1.92477136      10.27465488      -0.65259285       0.26012674      -0.39190992
Au       6.09630836      -0.14856903      10.28961149       0.84138105       0.67386632      -0.36822644
Au       6.27937181       1.89183556       8.27992031      -0.21260222       0.27761804      -0.26017557
Au       4.03372934       4.08655354       0.21086764       0.18181277       0.24744927      -1.05352211
Au       4.19277573       6.17995920       2.32951626      -0.39373488       0.10213959      -1.22425963
Au       6.07184120       3.97795959       2.04475925       0.52913812       0.49731016       0.58252528
Au       6.10505425       5.89189947       0.08301697      -0.19725781       1.09108792      -0.07796757
Au       4.06929471       4.12794053       4.18709084      -0.41903341      -0.46224862      -0.21359388
Au       4.08870623       6.12402962       6.29363923      -0.08818305      -0.60768383      -0.06443526
Au       6.10212344       3.99190620       5.97711087       0.36856655       0.55183592       1.65173885
Au       6.05818724       6.01776911       4.19385212       1.03925890       0.20090767      -0.28454765
Au       4.06596240       3.96288089       8.11199155       0.32483929       0.21513529       0.29541439
Au       4.20263616       6.07226653      10.34422517      -0.04947816      -0.16357843      -0.17859937
Au       6.21696302       3.85176286      10.22032753      -0.18890447       1.05352126      -0.50881123
Au       6.16327145       6.01634807       8.27660933       0.03809317      -0.04898530      -0.07927480
Au       4.24285636       8.23238906       0.02667376      -0.28829047      -0.53235628       0.33255261
Au       4.19316661      10.23067866       2.11428281      -0.06685613      -0.51863807       0.74387539
Au       6.24041505       8.12678584       2.03222847       0.07110536       0.04292382       0.21973071
Au       6.18932395      10.21532713       0.13724437       0.18923893      -0.40378623       0.23512004
Au       4.13330580       8.04393243       4.26911429      -0.56609710       0.86961639      -0.48842493
Au       4.15773015      10.14795484       6.31327946       0.38550108      -0.20537903      -0.45850050
Au       6.07681878       8.01805674       6.03490508       0.85104862       0.10008022       1.12640466
Au       6.23702678      10.03707148       4.25594481      -0.06517212       0.54393895      -0.51577070
Au       4.21089881       8.14073780       8.17037526       0.40727584      -0.27687500       0.93386649
Au       4.19230793      10.26299954      10.53167244       0.02143798      -2.06448852      -1.50435355
Au       6.32775853       8.10589589      10.23806460      -0.66077199      -0.29609796      -0.02963448
Au       6.28916361      10.10715190       8.38141638      -0.50278009      -0.07790656      -0.23567097
Au       8.08412282       0.01995988       0.04225645       0.28857063       0.69278450      -0.52707592
Au       8.19705907       2.10209444       2.03738624      -0.28716159       0.34087602      -0.07082330
Au      10.06830495       0.19137576       2.32256542       1.70649163      -0.53004856      -2.00800901
Au      10.23565069       1.94730549      -0.01689120       0.02521996       0.37722093       0.24734243
Au       8.23506780       0.13602629       3.98722836      -1.51454152      -0.40508538       1.59532793
Au       8.19674687       2.03697691       6.26443930       0.11457660      -0.22343681      -0.25330761
Au      10.20502217      -0.16282268       6.21843547      -0.03114562       0.32580252      -0.19718823
Au      10.34013709       2.03610709       4.18362803      -0.31010889       0.52479472       0.66459178
Au       8.17345581      -0.11800102       8.29383570       0.25407459       0.66802513      -0.62385361
Au       8.28467862       2.03108210      10.41086867       0.29619452      -0.16817687      -0.72890262
Au      10.17064693      -0.09698230      10.25478476       0.81706167       0.32120720      -0.01081034
Au      10.20797506       2.08734143       8.20703981       0.16091667      -0.53939461       0.22397934
Au       8.06145320       4.11010678       0.09912793       0.78691678      -0.07511397      -0.02995576
Au       8.27919879       6.15831268       2.19767272      -0.85481870      -0.21371956      -0.03519312
Au      10.24796189       4.07635143       2.05827043      -0.41482736      -0.45360966       0.53995905
Au      10.23309177       6.11266865       0.28566292      -0.24492268       0.16624082      -1.15932691
Au       8.33167360       4.13147506       4.20261646      -0.26351064      -0.41493579      -0.36172489
Au       8.21368357       5.95754776       6.21261657      -0.15778501       0.72989814      -0.02563035
Au      10.26282160       4.08278086       6.25952169       0.45331806      -0.64554079      -0.68814062
Au      10.33308984       6.04142725       4.13104880      -0.20789743      -0.63914026       0.98795624
Au       8.37928992       4.10995085       8.20836838      -1.18438919      -0.52935251       0.45736996
Au       8.24850724       6.03805027      10.32006691      -0.45834478      -0.55755948      -0.52800740
Au      10.33669879       4.27799603      10.31421941      -0.21282146      -1.16829489       0.55831633
Au      10.34396552       5.90665653       8.23354207      -0.43139239       1.24455027       0.13103770
Au       8.29688731       8.21003758      -0.30056507      -1.40349685      -0.36867423       2.58374896
Au       8.26643223      10.37709146       2.00821966      -0.57701359      -1.06899766       0.97460020
Au      10.38117081       7.88425454       2.27994457      -1.17817974       1.99682815      -0.68513190
Au      10.21664239       9.97726042       0.21754677       0.49379976       0.88894967      -0.16887187
Au       8.32583866       8.17085627       4.27950487      -0.76049579      -0.79758102      -0.43904238
Au       8.19461118       9.96379758       6.35967253       0.10210339       1.10550946      -0.63938017
Au      10.44095631       8.23906972       6.07003280      -1.28089374      -0.50418026       1.62569901
Au      10.10276670      10.09232231       4.09631115       0.27583023       0.83056807       0.36758903
Au       8.25192256       8.13847069       8.16067248       0.18699359      -1.00254324       0.59325740
Au       8.35024052      10.17470848      10.31834592      -0.26328404      -0.23029465       0.09877594
Au      10.28547761       7.89579306      10.31826988       1.19177376       0.59852491      -1.08555704
Au      10.29174352      10.15845538       8.37617210       0.47505316      -0.24385223      -0.17951558
108
Lattice="12.109789486520855 -0.1132749447702944 0.05898362779442955 -0.1359671786883232 12.145596297516375 -0.15149981100517776 0.24233087340980544 -0.0928374259836489 12.234112431743569" Properties=species:S:1:pos:R:3:REF_forces:R:3 REF_energy=10.987556073912646 pbc="T T T"
Au       0.02840632       0.05917155      -0.04356834      -0.06589747      -1.34410876       1.00506480
Au       0.05384957       2.21526736       2.00695838      -1.46059854      -2.87798122       0.45890197
Au       2.00005865      -0.12299405       2.07115814       0.05204092       0.11448215      -0.29668176
Au       1.95564524       1.95254933      -0.01396087       1.20571578      -0.24884733      -0.07512371
Au       0.00072787      -0.03378179       3.98854056       0.11742732       0.17177363       0.34528602
Au       0.20651524       1.84602610       6.02959247      -0.28686952       0.12676690       0.23077595
Au       2.31728199      -0.12822076       6.06881592      -0.76499966       0.16485279      -0.04574202
Au       2.05078784       2.05286370       3.90211493      -0.12054702      -0.96455268       0.88954257
Au       0.19996212      -0.21616361       8.31936665       0.11869508       0.52477028      -0.94594288
Au       0.12946407       1.65881426      10.32914862       0.42079017       1.68688259      -1.38285518
Au       2.31932407      -0.17048616      10.09279443      -0.39236093       0.44578404       0.62319402
Au       2.04424105       1.84301008       8.18610577       0.38147284       0.33177986      -0.27686325
Au       0.03014926       3.81820156      -0.07786563      -0.21447279       1.56325309      -0.49397050
Au      -0.00389322       5.93439033       2.04894346      -0.04343763       0.44839180      -1.52305668
Au       1.79970836       3.95036409       2.07653471       3.05222536       1.62590827      -0.72737244
Au       1.92775098       5.94688340      -0.03281043       0.10480481       0.08330743      -0.04657021
Au      -0.08617693       4.10449487       3.89676236      -0.32646050      -0.20965197       2.02595446
Au       0.16860263       6.12458343       6.24866932      -3.23062130      -2.24272959      -3.22038987
Au       2.03964080       4.00489946       5.94696643       0.01799550      -0.65737891       0.47628214
Au       2.17272100       6.00080249       4.15538712      -0.40933018      -0.84989730      -1.14284900
Au       0.22510644       3.96776351       8.10514856      -0.50415061      -0.45832738      -0.07621137
Au       0.12493313       5.99257845      10.11928240       0.32969853      -0.87718132      -0.10305365
Au       2.06657999       3.97020779      10.19028214       0.63654262      -0.39522912      -0.54536210
Au       1.95914863       6.14270106       7.87280399       2.64683566      -1.15251513       3.04670950
Au      -0.05418613       8.03382801      -0.20594790      -0.16554489       0.43078250       1.49684530
Au      -0.10760420      10.03419290       2.01885292      -0.18097838       0.17943919      -0.71961833
Au       1.76401821       7.96153042       1.95114282       1.10406788       0.28017639      -0.49025285
Au       1.78738400      10.08347947      -0.07015943       0.39375655       0.11549708      -0.10859206
Au      -0.12548542       7.95138535       3.82980614       1.16939016       1.03413470       1.09422524
Au      -0.11752488      10.14206484       5.96361471       0.86924708       0.54932238      -0.00815275
Au       1.95982681       7.87517928       5.95605587       1.12087045       2.62427861      -0.30874193
Au       1.93173692       9.86937386       3.98066622      -0.05368280       0.65898961       0.07553218
Au      -0.03009970       7.94225936       8.03062908       0.83471683       2.67530023       0.74328683
Au       0.13084250       9.86423386       9.97738648       0.33285005       0.88858896       0.59715305
Au       2.04553273       7.83461246      10.18447715       1.03046924       0.73376049      -0.72344353
Au       2.12114376       9.98784346       7.99638536      -0.40190718      -0.34167547      -0.11172589
Au       4.17146995      -0.14615711      -0.10078706      -0.60087373       0.42236784       0.50025980
Au       4.09762207       1.85830461       2.03864133      -0.25071174       0.31728162      -0.07251613
Au       6.00683832      -0.13437491       2.04422307       1.17705134       0.88515463      -0.47720795
Au       5.85940871       2.10364658       0.02697314       1.05621013      -0.67331253      -0.19189007
Au       4.05160115      -0.19505708       3.89079731      -0.20897748       0.98357908       1.56642971
Au       4.21672439       1.93006200       5.87442760      -0.62757435      -0.99810877       1.28148684
Au       6.21116543      -0.08933899       6.32528573       0.36964950      -0.18900585      -1.71056870
Au       6.35632424       1.96602195       4.24069937      -0.15377449      -0.18961002      -0.89176184
Au       4.24741059      -0.08875509       8.07998437      -0.83413493       0.07437188       0.39090553
Au       4.28326213       1.91930904      10.17613224      -0.60796680      -0.00224986       0.09675402
Au       6.31167911      -0.16804741      10.07707120      -1.00459823       0.42957808       1.60641569
Au       6.09128257       1.87564071       8.14247546       0.47318409       0.88444087      -0.01377725
Au       4.03033745       3.98753326       0.03097934      -0.71090123       0.19091070      -0.21937849
Au       4.05987203       6.10565684       1.75791667      -1.15448857      -0.08342465       1.55539825
Au       6.08602770       4.12176475       2.04868391      -0.53568570      -0.84798336       0.17341059
Au       5.93203294       6.09964785       0.10100417       0.93745302       0.01521704      -1.51514001
Au       4.15189482       3.75193630       4.11801962       0.00798239       1.44737149      -1.17452813
Au       4.11687962       5.92174884       6.20476120      -0.44464030       0.40704067      -0.55489243
Au       5.99090861       4.00263530       6.15371791       1.32786320      -0.38596915      -0.04181914
Au       6.03568009       6.02382562       4.22539694      -0.67711012      -1.50618891      -2.21656100
Au       4.15076273       3.93589661       8.10510071      -0.90231659      -0.59445883       0.37376700
Au       4.06383871       5.96707635      10.02087861      -0.26634630      -0.30531584       0.59074500
Au       6.18339133       3.97179017      10.17879272      -0.05349521       0.06404597       0.02423509
Au       6.00434901       5.93452761       8.17808417       1.36774683       0.02792164      -0.12415199
Au       3.87647832       8.11340929      -0.15276742      -0.28365979       0.14658457       0.34783142